 Q-Chem 5.2, Q-Chem, Inc., Pleasanton, CA (2019)
 Q-Chem 5.2.1 for Intel X86 EM64T Linux

User input:
--------------------------------------------------------------
$molecule
0 1
C    0.0000000   -0.0000000    0.7595848
C   -0.0000000    0.0000000   -0.7595848
H    0.5222890    0.9046312    1.1361621
H    0.5222890   -0.9046312    1.1361621
H   -1.0445781    0.0000000    1.1361621
H    1.0445781   -0.0000000   -1.1361621
H   -0.5222890    0.9046312   -1.1361621
H   -0.5222890   -0.9046312   -1.1361621
$end

$rem
BASIS  =  6-31G
GUI  =  2
JOB_TYPE  =  Optimization
METHOD  =  HF
SCF_CONVERGENCE  =  8
$end

--------------------------------------------------------------

    9     -79.1940352587      6.10e-09  Convergence criterion met
 Total energy in the final basis set =      -79.1940352587
    8     -79.1974432052      2.87e-09  Convergence criterion met
 Total energy in the final basis set =      -79.1974432052
    7     -79.1975709015      5.17e-09  Convergence criterion met
 Total energy in the final basis set =      -79.1975709015

             Standard Nuclear Orientation (Angstroms)
    I     Atom           X                Y                Z
 ----------------------------------------------------------------
    1      C       0.0000000000     0.0000000000     0.7650137204
    2      C       0.0000000000     0.0000000000    -0.7650137204
    3      H       1.0111678596     0.0000000000     1.1571337095
    4      H      -0.5055839298    -0.8756970539     1.1571337095
    5      H      -0.5055839298     0.8756970539     1.1571337095
    6      H       0.5055839298    -0.8756970539    -1.1571337095
    7      H       0.5055839298     0.8756970539    -1.1571337095
    8      H      -1.0111678596     0.0000000000    -1.1571337095
 ----------------------------------------------------------------

    6     -79.1975723758      4.53e-09  Convergence criterion met
 Total energy in the final basis set =      -79.1975723758
 Final energy is   -79.1975723758347
 **  OPTIMIZATION CONVERGED  **

             Orbital Energies (a.u.) and Symmetries
 --------------------------------------------------------------

 Alpha MOs, Restricted
 -- Occupied --
-11.211 -11.210  -1.023  -0.848  -0.598  -0.598  -0.507  -0.485
  1 A1g   1 A2u   2 A1g   2 A2u   1 Eu    1 Eu    3 A1g   1 Eg
 -0.485
  1 Eg

 Beta MOs, Restricted
 -- Occupied --
-11.211 -11.210  -1.023  -0.848  -0.598  -0.598  -0.507  -0.485
  1 A1g   1 A2u   2 A1g   2 A2u   1 Eu    1 Eu    3 A1g   1 Eg
 -0.485
  1 Eg

          Ground-State Mulliken Net Atomic Charges

     Atom                 Charge (a.u.)
  ----------------------------------------
      1 C                    -0.452537
      2 C                    -0.452537
      3 H                     0.150846
      4 H                     0.150846
      5 H                     0.150846
      6 H                     0.150846
      7 H                     0.150846
      8 H                     0.150846
  ----------------------------------------
  Sum of atomic charges =     0.000000

                    Cartesian Multipole Moments
 -----------------------------------------------------------------
    Charge (ESU x 10^10)
                 0.0000
    Dipole Moment (Debye)
         X       0.0000      Y      -0.0000      Z       0.0000
       Tot       0.0000
    Quadrupole Moments (Debye-Ang)
        XX     -15.0411     XY       0.0000     YY     -15.0411
        XZ       0.0000     YZ      -0.0000     ZZ     -15.5272

 Total job time:  1.12s(wall), 1.11s(cpu)
        *  Thank you very much for using Q-Chem.  Have a nice day.  *
